
                                 *****************
                                 * O   R   C   A *
                                 *****************

           --- An Ab Initio, DFT and Semiempirical electronic structure package ---

                  #######################################################
                  #                        -***-                        #
                  #  Department of molecular theory and spectroscopy    #
                  #              Directorship: Frank Neese              #
                  # Max Planck Institute for Chemical Energy Conversion #
                  #                  D-45470 Muelheim/Ruhr              #
                  #                       Germany                       #
                  #                                                     #
                  #                  All rights reserved                #
                  #                        -***-                        #
                  #######################################################


                         Program Version 4.0.1.2 - RELEASE -


 With contributions from (in alphabetic order):
   Daniel Aravena         : Magnetic Properties
   Michael Atanasov       : Ab Initio Ligand Field Theory
   Ute Becker             : Parallelization
   Martin Brehm           : Molecular dynamics
   Dmytro Bykov           : SCF Hessian
   Vijay G. Chilkuri      : MRCI spin determinant printing
   Dipayan Datta          : RHF DLPNO-CCSD density
   Achintya Kumar Dutta   : EOM-CC, STEOM-CC
   Dmitry Ganyushin       : Spin-Orbit,Spin-Spin,Magnetic field MRCI
   Yang Guo               : DLPNO-NEVPT2, CIM, IAO-localization
   Andreas Hansen         : Spin unrestricted coupled pair/coupled cluster methods
   Lee Huntington         : MR-EOM, pCC
   Robert Izsak           : Overlap fitted RIJCOSX, COSX-SCS-MP3, EOM
   Christian Kollmar      : KDIIS, OOCD, Brueckner-CCSD(T), CCSD density
   Simone Kossmann        : Meta GGA functionals, TD-DFT gradient, OOMP2, MP2 Hessian
   Martin Krupicka        : AUTO-CI
   Dagmar Lenk            : GEPOL surface
   Dimitrios Liakos       : Extrapolation schemes; parallel MDCI
   Dimitrios Manganas     : ROCIS; embedding schemes
   Dimitrios Pantazis     : SARC Basis sets
   Taras Petrenko         : DFT Hessian,TD-DFT gradient, ASA, ECA, R-Raman, ABS, FL, XAS/XES, NRVS
   Peter Pinski           : DLPNO-MP2
   Christoph Reimann      : Effective Core Potentials
   Marius Retegan         : Local ZFS, SOC
   Christoph Riplinger    : Optimizer, TS searches, QM/MM, DLPNO-CCSD(T), (RO)-DLPNO pert. Triples
   Tobias Risthaus        : Range-separated hybrids, TD-DFT gradient, RPA, STAB
   Michael Roemelt        : Restricted open shell CIS
   Masaaki Saitow         : Open-shell DLPNO
   Barbara Sandhoefer     : DKH picture change effects
   Kantharuban Sivalingam : CASSCF convergence, NEVPT2, FIC-MRCI
   Georgi Stoychev        : AutoAux
   Boris Wezisla          : Elementary symmetry handling
   Frank Wennmohs         : Technical directorship


 We gratefully acknowledge several colleagues who have allowed us to
 interface, adapt or use parts of their codes:
   Stefan Grimme, W. Hujo, H. Kruse,             : VdW corrections, initial TS optimization,
                  C. Bannwarth                     DFT functionals, gCP, sTDA/sTD-DF
   Ed Valeev                                     : LibInt (2-el integral package), F12 methods
   Garnet Chan, S. Sharma, J. Yang, R. Olivares  : DMRG
   Ulf Ekstrom                                   : XCFun DFT Library
   Mihaly Kallay                                 : mrcc  (arbitrary order and MRCC methods)
   Andreas Klamt, Michael Diedenhofen            : otool_cosmo (COSMO solvation model)
   Jiri Pittner, Ondrej Demel                    : Mk-CCSD
   Frank Weinhold                                : gennbo (NPA and NBO analysis)
   Christopher J. Cramer and Donald G. Truhlar   : smd solvation model


 Your calculation uses the libint2 library for the computation of 2-el integrals
 For citations please refer to: http://libint.valeyev.net

 This ORCA versions uses:
   CBLAS   interface :  Fast vector & matrix operations
   LAPACKE interface :  Fast linear algebra routines
   SCALAPACK package :  Parallel linear algebra routines


Your calculation utilizes the basis: 6-311G*
   H, Li - Ne  : R. Krishnan, J. S. Binkley, R. Seeger and J. A. Pople, J. Chem. Phys. 72, 650 (1980).
   Na - Ar     : A. D. McLean and G. S. Chandler J. Chem. Phys. 72, 5639, (1980).
   K  - Ca     : J.-P. Blaudeau, M. P. McGrath, L. A. Curtiss and L. Radom, J. Chem. Phys. 107, 5016 (1997).
   Ga - Kr     : L. A. Curtiss, M. P. McGrath, J.-P. Blandeau, N. E. Davis, R. C. Binning and L. Radom, J. Chem. Phys. 103, 6104 (1995).
   Pol./Diff.
   H, Li - Cl  : T. Clark, J. Chandrasekhar and P. v. R. Schleyer, J. Comp. Chem. 4, 294 (1983).
   H - Ne      : M. J. Frisch, J. A. Pople and J. S. Binkley, J. Chem. Phys. 80, 3265 (1984).

================================================================================
                                        WARNINGS
                       Please study these warnings very carefully!
================================================================================

Warning: TCutStore was < 0. Adjusted to Thresh (uncritical)

WARNING: Geometry Optimization
  ===> : Switching off AutoStart
         For restart on a previous wavefunction, please use MOREAD

INFO   : the flag for use of LIBINT has been found!

================================================================================
                                       INPUT FILE
================================================================================
NAME = buta_opt_freq.inp
|  1> %pal nprocs 32 # Number of processors
|  2> 
|  3> 	end
|  4> 
|  5> ! RKS B3LYP 6-311G* Opt Freq TightOpt VeryTightSCF
|  6> 
|  7> * xyz 0 1
|  8> C        1.5714036283     -0.3223184042     -0.2455268696                 
|  9> C        0.3999632193      0.3160601820     -0.1824650390                 
| 10> C       -0.8213344909     -0.3754737697      0.2756942033                 
| 11> C       -2.0004203229      0.2513039549      0.3015375354                 
| 12> H       -0.7696345038     -1.4124674803      0.5957601569                 
| 13> H       -2.0941003057      1.2857064673     -0.0151006020                 
| 14> H       -2.8868322891     -0.2756693923      0.6391430705                 
| 15> H        0.3533148024      1.3604997783     -0.4782062220                 
| 16> H        1.6577786346     -1.3673220793      0.0365025037                 
| 17> H        2.4570695043      0.2029931938     -0.5876345449                 
| 18> *
| 19> 
| 20> 
| 21> 
| 22>                          ****END OF INPUT****
================================================================================

                       *****************************
                       * Geometry Optimization Run *
                       *****************************

Geometry optimization settings:
Update method            Update   .... BFGS
Choice of coordinates    CoordSys .... Redundant Internals
Initial Hessian          InHess   .... Almoef's Model

Convergence Tolerances:
Energy Change            TolE     ....  1.0000e-06 Eh
Max. Gradient            TolMAXG  ....  1.0000e-04 Eh/bohr
RMS Gradient             TolRMSG  ....  3.0000e-05 Eh/bohr
Max. Displacement        TolMAXD  ....  1.0000e-03 bohr
RMS Displacement         TolRMSD  ....  6.0000e-04 bohr

------------------------------------------------------------------------------
                        ORCA OPTIMIZATION COORDINATE SETUP
------------------------------------------------------------------------------

The optimization will be done in new redundant internal coordinates
Making redundant internal coordinates   ...  (new redundants) done
Evaluating the initial hessian          ...  (Almloef) done
Evaluating the coordinates              ...  done
Calculating the B-matrix                .... done
Calculating the G-matrix                .... done
Diagonalizing the G-matrix              .... done
The first mode is                       ....    9
The number of degrees of freedom        ....   24

    -----------------------------------------------------------------
                    Redundant Internal Coordinates


    -----------------------------------------------------------------
         Definition                    Initial Value    Approx d2E/dq
    -----------------------------------------------------------------
      1. B(C   1,C   0)                  1.3356         0.763063   
      2. B(C   2,C   1)                  1.4764         0.454910   
      3. B(C   3,C   2)                  1.3356         0.763079   
      4. B(H   4,C   2)                  1.0865         0.364767   
      5. B(H   5,C   3)                  1.0858         0.365660   
      6. B(H   6,C   3)                  1.0851         0.366664   
      7. B(H   7,C   1)                  1.0865         0.364753   
      8. B(H   8,C   0)                  1.0858         0.365654   
      9. B(H   9,C   0)                  1.0851         0.366671   
     10. A(C   1,C   0,H   9)          119.9601         0.366741   
     11. A(C   1,C   0,H   8)          121.1655         0.366567   
     12. A(H   8,C   0,H   9)          118.8738         0.292371   
     13. A(C   0,C   1,H   7)          118.9652         0.366412   
     14. A(C   0,C   1,C   2)          121.0863         0.426191   
     15. A(C   2,C   1,H   7)          119.9482         0.335764   
     16. A(C   1,C   2,H   4)          119.9413         0.335766   
     17. A(C   1,C   2,C   3)          121.0969         0.426193   
     18. A(C   3,C   2,H   4)          118.9615         0.366415   
     19. A(H   5,C   3,H   6)          118.8751         0.292370   
     20. A(C   2,C   3,H   6)          119.9535         0.366741   
     21. A(C   2,C   3,H   5)          121.1708         0.366569   
     22. D(C   2,C   1,C   0,H   9)    179.8296         0.041665   
     23. D(H   7,C   1,C   0,H   8)   -179.6868         0.041665   
     24. D(C   2,C   1,C   0,H   8)      0.1093         0.041665   
     25. D(H   7,C   1,C   0,H   9)      0.0335         0.041665   
     26. D(C   3,C   2,C   1,H   7)      1.7844         0.014101   
     27. D(H   4,C   2,C   1,C   0)      1.7843         0.014101   
     28. D(C   3,C   2,C   1,C   0)   -178.0098         0.014101   
     29. D(H   4,C   2,C   1,H   7)   -178.4216         0.014101   
     30. D(H   6,C   3,C   2,H   4)      0.0335         0.041667   
     31. D(H   6,C   3,C   2,C   1)    179.8295         0.041667   
     32. D(H   5,C   3,C   2,H   4)   -179.6868         0.041667   
     33. D(H   5,C   3,C   2,C   1)      0.1092         0.041667   
    -----------------------------------------------------------------

Number of atoms                         .... 10
Number of degrees of freedom            .... 33

         *************************************************************
         *                GEOMETRY OPTIMIZATION CYCLE   1            *
         *************************************************************
---------------------------------
CARTESIAN COORDINATES (ANGSTROEM)
---------------------------------
  C      1.571404   -0.322318   -0.245527
  C      0.399963    0.316060   -0.182465
  C     -0.821334   -0.375474    0.275694
  C     -2.000420    0.251304    0.301538
  H     -0.769635   -1.412467    0.595760
  H     -2.094100    1.285706   -0.015101
  H     -2.886832   -0.275669    0.639143
  H      0.353315    1.360500   -0.478206
  H      1.657779   -1.367322    0.036503
  H      2.457070    0.202993   -0.587635

----------------------------
CARTESIAN COORDINATES (A.U.)
----------------------------
  NO LB      ZA    FRAG     MASS         X           Y           Z
   0 C     6.0000    0    12.011    2.969523   -0.609094   -0.463979
   1 C     6.0000    0    12.011    0.755821    0.597267   -0.344809
   2 C     6.0000    0    12.011   -1.552097   -0.709543    0.520987
   3 C     6.0000    0    12.011   -3.780247    0.474896    0.569823
   4 H     1.0000    0     1.008   -1.454398   -2.669177    1.125824
   5 H     1.0000    0     1.008   -3.957276    2.429633   -0.028536
   6 H     1.0000    0     1.008   -5.455322   -0.520940    1.207805
   7 H     1.0000    0     1.008    0.667668    2.570972   -0.903679
   8 H     1.0000    0     1.008    3.132748   -2.583864    0.068980
   9 H     1.0000    0     1.008    4.643188    0.383602   -1.110468

--------------------------------
INTERNAL COORDINATES (ANGSTROEM)
--------------------------------
 C      0   0   0     0.000000000000     0.00000000     0.00000000
 C      1   0   0     1.335581014254     0.00000000     0.00000000
 C      2   1   0     1.476379759614   121.08629702     0.00000000
 C      3   2   1     1.335575379038   121.09688459   181.99024640
 H      3   2   1     1.086494850031   119.94132452     1.78431312
 H      4   3   2     1.085828811044   121.17082276     0.10924263
 H      4   3   2     1.085082752518   119.95347237   179.82951727
 H      2   1   3     1.086504943588   118.96520150   180.20389920
 H      1   2   3     1.085833269931   121.16553102     0.10931166
 H      1   2   3     1.085077868359   119.96012436   179.82962102

---------------------------
INTERNAL COORDINATES (A.U.)
---------------------------
 C      0   0   0     0.000000000000     0.00000000     0.00000000
 C      1   0   0     2.523882346605     0.00000000     0.00000000
 C      2   1   0     2.789953415335   121.08629702     0.00000000
 C      3   2   1     2.523871697589   121.09688459   181.99024640
 H      3   2   1     2.053177712475   119.94132452     1.78431312
 H      4   3   2     2.051919081194   121.17082276     0.10924263
 H      4   3   2     2.050509234900   119.95347237   179.82951727
 H      2   1   3     2.053196786533   118.96520150   180.20389920
 H      1   2   3     2.051927507270   121.16553102     0.10931166
 H      1   2   3     2.050500005178   119.96012436   179.82962102

---------------------
BASIS SET INFORMATION
---------------------
There are 2 groups of distinct atoms

 Group   1 Type C   : 11s5p1d contracted to 4s3p1d pattern {6311/311/1}
 Group   2 Type H   : 5s contracted to 3s pattern {311}

Atom   0C    basis set group =>   1
Atom   1C    basis set group =>   1
Atom   2C    basis set group =>   1
Atom   3C    basis set group =>   1
Atom   4H    basis set group =>   2
Atom   5H    basis set group =>   2
Atom   6H    basis set group =>   2
Atom   7H    basis set group =>   2
Atom   8H    basis set group =>   2
Atom   9H    basis set group =>   2


           ************************************************************
           *        Program running with 32 parallel MPI-processes    *
           *              working on a common directory               *
           ************************************************************
------------------------------------------------------------------------------
                           ORCA GTO INTEGRAL CALCULATION
------------------------------------------------------------------------------

                         BASIS SET STATISTICS AND STARTUP INFO

 # of primitive gaussian shells          ...   98
 # of primitive gaussian functions       ...  154
 # of contracted shells                  ...   50
 # of contracted basis functions         ...   90
 Highest angular momentum                ...    2
 Maximum contraction depth               ...    6
 Integral package used                   ... LIBINT
 Integral threshhold            Thresh   ...  2.500e-11
 Primitive cut-off              TCut     ...  2.500e-12


------------------------------ INTEGRAL EVALUATION ----------------------------


 * One electron integrals 
 Pre-screening matrix                    ... done
 Shell pair data                         ... done (   0.000 sec)



           ************************************************************
           *        Program running with 32 parallel MPI-processes    *
           *              working on a common directory               *
           ************************************************************
-------------------------------------------------------------------------------
                                 ORCA SCF
-------------------------------------------------------------------------------

------------
SCF SETTINGS
------------
Hamiltonian:
 Density Functional     Method          .... DFT(GTOs)
 Exchange Functional    Exchange        .... B88
   X-Alpha parameter    XAlpha          ....  0.666667
   Becke's b parameter  XBeta           ....  0.004200
 Correlation Functional Correlation     .... LYP
 LDA part of GGA corr.  LDAOpt          .... VWN-5
 Gradients option       PostSCFGGA      .... off
 Hybrid DFT is turned on
   Fraction HF Exchange ScalHFX         ....  0.200000
   Scaling of DF-GGA-X  ScalDFX         ....  0.720000
   Scaling of DF-GGA-C  ScalDFC         ....  0.810000
   Scaling of DF-LDA-C  ScalLDAC        ....  1.000000
   Perturbative correction              ....  0.000000
   NL short-range parameter             ....  4.800000


General Settings:
 Integral files         IntName         .... buta_opt_freq
 Hartree-Fock type      HFTyp           .... RHF
 Total Charge           Charge          ....    0
 Multiplicity           Mult            ....    1
 Number of Electrons    NEL             ....   30
 Basis Dimension        Dim             ....   90
 Nuclear Repulsion      ENuc            ....    103.8470554287 Eh

Convergence Acceleration:
 DIIS                   CNVDIIS         .... on
   Start iteration      DIISMaxIt       ....    12
   Startup error        DIISStart       ....  0.200000
   # of expansion vecs  DIISMaxEq       ....     5
   Bias factor          DIISBfac        ....   1.050
   Max. coefficient     DIISMaxC        ....  10.000
 Newton-Raphson         CNVNR           .... off
 SOSCF                  CNVSOSCF        .... on
   Start iteration      SOSCFMaxIt      ....   150
   Startup grad/error   SOSCFStart      ....  0.003300
 Level Shifting         CNVShift        .... on
   Level shift para.    LevelShift      ....    0.2500
   Turn off err/grad.   ShiftErr        ....    0.0010
 Zerner damping         CNVZerner       .... off
 Static damping         CNVDamp         .... on
   Fraction old density DampFac         ....    0.7000
   Max. Damping (<1)    DampMax         ....    0.9800
   Min. Damping (>=0)   DampMin         ....    0.0000
   Turn off err/grad.   DampErr         ....    0.1000
 Fernandez-Rico         CNVRico         .... off

SCF Procedure:
 Maximum # iterations   MaxIter         ....   125
 SCF integral mode      SCFMode         .... Direct
   Integral package                     .... LIBINT
 Reset frequeny         DirectResetFreq ....    20
 Integral Threshold     Thresh          ....  2.500e-11 Eh
 Primitive CutOff       TCut            ....  2.500e-12 Eh

Convergence Tolerance:
 Convergence Check Mode ConvCheckMode   .... Total+1el-Energy
 Convergence forced     ConvForced      .... 0
 Energy Change          TolE            ....  1.000e-08 Eh
 1-El. energy change                    ....  1.000e-05 Eh
 Orbital Gradient       TolG            ....  1.000e-05
 Orbital Rotation angle TolX            ....  1.000e-05
 DIIS Error             TolErr          ....  5.000e-07


Diagonalization of the overlap matrix:
Smallest eigenvalue                        ... 1.761e-03
Time for diagonalization                   ...    0.002 sec
Threshold for overlap eigenvalues          ... 1.000e-08
Number of eigenvalues below threshold      ... 0
Time for construction of square roots      ...    0.010 sec
Total time needed                          ...    0.012 sec

-------------------
DFT GRID GENERATION
-------------------

General Integration Accuracy     IntAcc      ...  4.340
Radial Grid Type                 RadialGrid  ... Gauss-Chebyshev
Angular Grid (max. acc.)         AngularGrid ... Lebedev-110
Angular grid pruning method      GridPruning ... 3 (G Style)
Weight generation scheme         WeightScheme... Becke
Basis function cutoff            BFCut       ...    1.0000e-11
Integration weight cutoff        WCut        ...    1.0000e-14
Grids for H and He will be reduced by one unit

# of grid points (after initial pruning)     ...  11388 (   0.0 sec)
# of grid points (after weights+screening)   ...  10895 (   0.6 sec)
nearest neighbour list constructed           ...    0.0 sec
Grid point re-assignment to atoms done       ...    0.0 sec
Grid point division into batches done        ...    0.0 sec
Reduced shell lists constructed in    0.0 sec

Total number of grid points                  ...    10895
Total number of batches                      ...      176
Average number of points per batch           ...       61
Average number of grid points per atom       ...     1090
Average number of shells per batch           ...    37.29 (74.57%)
Average number of basis functions per batch  ...    69.86 (77.62%)
Average number of large shells per batch     ...    31.14 (83.52%)
Average number of large basis fcns per batch ...    58.00 (83.03%)
Maximum spatial batch extension              ...   4.59,  6.46, 13.53 au
Average spatial batch extension              ...   0.09,  0.11,  0.18 au

Time for grid setup =    0.617 sec

------------------------------
INITIAL GUESS: MODEL POTENTIAL
------------------------------
Loading Hartree-Fock densities                     ... done
Calculating cut-offs                               ... done
Setting up the integral package                    ... done
Initializing the effective Hamiltonian             ... done
Starting the Coulomb interaction                   ... done (   0.0 sec)
Reading the grid                                   ... done
Mapping shells                                     ... done
Starting the XC term evaluation                    ... done (   0.0 sec)
  promolecular density results
     # of electrons  =     29.990074351
     EX              =    -22.284634059
     EC              =     -0.952022506
     EX+EC           =    -23.236656565
Transforming the Hamiltonian                       ... done (   0.0 sec)
Diagonalizing the Hamiltonian                      ... done (   0.0 sec)
Back transforming the eigenvectors                 ... done (   0.0 sec)
Now organizing SCF variables                       ... done
                      ------------------
                      INITIAL GUESS DONE (   0.8 sec)
                      ------------------
--------------
SCF ITERATIONS
--------------
ITER       Energy         Delta-E        Max-DP      RMS-DP      [F,P]     Damp
               ***  Starting incremental Fock matrix formation  ***
  0   -155.7786773309   0.000000000000 0.05745997  0.00210909  0.1756986 0.7000
  1   -155.8407830406  -0.062105709767 0.03680249  0.00154572  0.0944546 0.7000
                               ***Turning on DIIS***
  2   -155.8680930566  -0.027310016008 0.05611775  0.00260248  0.0388743 0.0000
  3   -155.9049496142  -0.036856557616 0.02579787  0.00113773  0.0488378 0.0000
  4   -155.9158270992  -0.010877484965 0.00476096  0.00031117  0.0098874 0.0000
                      *** Initiating the SOSCF procedure ***
                           *** Shutting down DIIS ***
                      *** Re-Reading the Fockian *** 
                      *** Removing any level shift *** 
ITER      Energy       Delta-E        Grad      Rot      Max-DP    RMS-DP
  5   -155.91633211  -0.0005050093  0.000848  0.000848  0.001253  0.000108
               *** Restarting incremental Fock matrix formation ***
  6   -155.91635700  -0.0000248934  0.000508  0.001698  0.000791  0.000056
  7   -155.91635469   0.0000023127  0.000753  0.000870  0.000517  0.000027
  8   -155.91635985  -0.0000051629  0.000058  0.000106  0.000115  0.000009
  9   -155.91635985  -0.0000000007  0.000061  0.000043  0.000068  0.000004
                  ***Gradient check signals convergence***
              ***Rediagonalizing the Fockian in SOSCF/NRSCF***

               *****************************************************
               *                     SUCCESS                       *
               *           SCF CONVERGED AFTER  10 CYCLES          *
               *****************************************************

Setting up the final grid:

General Integration Accuracy     IntAcc      ...  4.670
Radial Grid Type                 RadialGrid  ... Gauss-Chebyshev
Angular Grid (max. acc.)         AngularGrid ... Lebedev-302
Angular grid pruning method      GridPruning ... 3 (G Style)
Weight generation scheme         WeightScheme... Becke
Basis function cutoff            BFCut       ...    1.0000e-11
Integration weight cutoff        WCut        ...    1.0000e-14
Grids for H and He will be reduced by one unit

# of grid points (after initial pruning)     ...  45212 (   0.0 sec)
# of grid points (after weights+screening)   ...  42817 (   0.0 sec)
nearest neighbour list constructed           ...    0.0 sec
Grid point re-assignment to atoms done       ...    0.0 sec
Grid point division into batches done        ...    0.2 sec
Reduced shell lists constructed in    0.2 sec

Total number of grid points                  ...    42817
Total number of batches                      ...      676
Average number of points per batch           ...       63
Average number of grid points per atom       ...     4282
Average number of shells per batch           ...    39.09 (78.17%)
Average number of basis functions per batch  ...    73.17 (81.30%)
Average number of large shells per batch     ...    32.52 (83.20%)
Average number of large basis fcns per batch ...    60.87 (83.18%)
Maximum spatial batch extension              ...   4.85,  7.57, 17.37 au
Average spatial batch extension              ...   0.06,  0.07,  0.09 au

Final grid set up in    0.4 sec
Final integration                            ... done (   0.2 sec)
Change in XC energy                          ...    -0.000054937
Integrated number of electrons               ...    29.999974150
Previous integrated no of electrons          ...    29.993058125

----------------
TOTAL SCF ENERGY
----------------

Total Energy       :         -155.91641485 Eh           -4242.70134 eV

Components:
Nuclear Repulsion  :          103.84705543 Eh            2825.82204 eV
Electronic Energy  :         -259.76347028 Eh           -7068.52338 eV
One Electron Energy:         -413.72203132 Eh          -11257.94882 eV
Two Electron Energy:          153.95856104 Eh            4189.42543 eV

Virial components:
Potential Energy   :         -311.24187578 Eh           -8469.32201 eV
Kinetic Energy     :          155.32546093 Eh            4226.62067 eV
Virial Ratio       :            2.00380462


DFT components:
N(Alpha)           :       14.999987074816 electrons
N(Beta)            :       14.999987074816 electrons
N(Total)           :       29.999974149632 electrons
E(X)               :      -18.103611639120 Eh       
E(C)               :       -1.137058879541 Eh       
E(XC)              :      -19.240670518660 Eh       

---------------
SCF CONVERGENCE
---------------

  Last Energy change         ...   -6.2916e-08  Tolerance :   1.0000e-08
  Last MAX-Density change    ...    2.8060e-06  Tolerance :   1.0000e-07
  Last RMS-Density change    ...    2.7512e-07  Tolerance :   5.0000e-09
  Last Orbital Gradient      ...    1.7936e-06  Tolerance :   1.0000e-05
  Last Orbital Rotation      ...    5.3596e-06  Tolerance :   1.0000e-05

             **** THE GBW FILE WAS UPDATED (buta_opt_freq.gbw) ****
             **** DENSITY FILE WAS UPDATED (buta_opt_freq.scfp.tmp) ****
             **** ENERGY FILE WAS UPDATED (buta_opt_freq.en.tmp) ****
----------------
ORBITAL ENERGIES
----------------

  NO   OCC          E(Eh)            E(eV) 
   0   2.0000     -10.175220      -276.8818 
   1   2.0000     -10.174920      -276.8737 
   2   2.0000     -10.162858      -276.5454 
   3   2.0000     -10.162817      -276.5443 
   4   2.0000      -0.805629       -21.9223 
   5   2.0000      -0.735036       -20.0014 
   6   2.0000      -0.598716       -16.2919 
   7   2.0000      -0.555755       -15.1229 
   8   2.0000      -0.468809       -12.7569 
   9   2.0000      -0.464002       -12.6261 
  10   2.0000      -0.391059       -10.6413 
  11   2.0000      -0.389561       -10.6005 
  12   2.0000      -0.350969        -9.5503 
  13   2.0000      -0.324016        -8.8169 
  14   2.0000      -0.234763        -6.3882 
  15   0.0000      -0.024986        -0.6799 
  16   0.0000       0.063207         1.7200 
  17   0.0000       0.066513         1.8099 
  18   0.0000       0.067341         1.8324 
  19   0.0000       0.074391         2.0243 
  20   0.0000       0.123350         3.3565 
  21   0.0000       0.130804         3.5594 
  22   0.0000       0.146963         3.9991 
  23   0.0000       0.243306         6.6207 
  24   0.0000       0.271093         7.3768 
  25   0.0000       0.320850         8.7308 
  26   0.0000       0.335042         9.1170 
  27   0.0000       0.353732         9.6255 
  28   0.0000       0.387921        10.5559 
  29   0.0000       0.388670        10.5762 
  30   0.0000       0.394306        10.7296 
  31   0.0000       0.446593        12.1524 
  32   0.0000       0.449929        12.2432 
  33   0.0000       0.464580        12.6419 
  34   0.0000       0.512802        13.9541 
  35   0.0000       0.538899        14.6642 
  36   0.0000       0.577244        15.7076 
  37   0.0000       0.611978        16.6528 
  38   0.0000       0.629618        17.1328 
  39   0.0000       0.640432        17.4271 
  40   0.0000       0.695523        18.9262 
  41   0.0000       0.711928        19.3725 
  42   0.0000       0.760116        20.6838 
  43   0.0000       0.774495        21.0751 
  44   0.0000       0.816888        22.2286 
  45   0.0000       0.842477        22.9250 
  46   0.0000       0.852368        23.1941 
  47   0.0000       0.961289        26.1580 
  48   0.0000       1.064740        28.9730 
  49   0.0000       1.129033        30.7226 
  50   0.0000       1.235355        33.6157 
  51   0.0000       1.288817        35.0705 
  52   0.0000       1.382346        37.6155 
  53   0.0000       1.413746        38.4700 
  54   0.0000       1.417099        38.5612 
  55   0.0000       1.421567        38.6828 
  56   0.0000       1.526034        41.5255 
  57   0.0000       1.653741        45.0006 
  58   0.0000       1.662220        45.2313 
  59   0.0000       1.741560        47.3903 
  60   0.0000       1.804064        49.0911 
  61   0.0000       1.842196        50.1287 
  62   0.0000       1.980751        53.8990 
  63   0.0000       2.017430        54.8971 
  64   0.0000       2.060708        56.0747 
  65   0.0000       2.158841        58.7450 
  66   0.0000       2.162250        58.8378 
  67   0.0000       2.206334        60.0374 
  68   0.0000       2.280368        62.0520 
  69   0.0000       2.284463        62.1634 
  70   0.0000       2.369525        64.4781 
  71   0.0000       2.433538        66.2199 
  72   0.0000       2.559647        69.6515 
  73   0.0000       2.652739        72.1847 
  74   0.0000       2.677331        72.8539 
  75   0.0000       2.848433        77.5098 
  76   0.0000       2.884092        78.4801 
  77   0.0000       2.996887        81.5494 
  78   0.0000       3.059803        83.2615 
  79   0.0000       3.213372        87.4403 
  80   0.0000       3.274385        89.1005 
  81   0.0000       3.308162        90.0197 
  82   0.0000       3.315835        90.2284 
  83   0.0000       3.488986        94.9401 
  84   0.0000       3.646442        99.2247 
  85   0.0000       4.172078       113.5280 
  86   0.0000      23.239670       632.3836 
  87   0.0000      23.537750       640.4947 
  88   0.0000      24.171216       657.7322 
  89   0.0000      24.212998       658.8692 

                    ********************************
                    * MULLIKEN POPULATION ANALYSIS *
                    ********************************

-----------------------
MULLIKEN ATOMIC CHARGES
-----------------------
   0 C :   -0.424626
   1 C :   -0.165344
   2 C :   -0.165542
   3 C :   -0.423485
   4 H :    0.189228
   5 H :    0.198791
   6 H :    0.200838
   7 H :    0.189797
   8 H :    0.199556
   9 H :    0.200788
Sum of atomic charges:   -0.0000000

--------------------------------
MULLIKEN REDUCED ORBITAL CHARGES
--------------------------------
  0 C s       :     3.276989  s :     3.276989
      pz      :     1.022836  p :     3.101499
      px      :     1.026167
      py      :     1.052496
      dz2     :     0.003566  d :     0.046138
      dxz     :     0.007617
      dyz     :     0.003996
      dx2y2   :     0.017765
      dxy     :     0.013194
  1 C s       :     3.193450  s :     3.193450
      pz      :     0.961137  p :     2.910102
      px      :     0.955109
      py      :     0.993857
      dz2     :     0.004594  d :     0.061792
      dxz     :     0.012624
      dyz     :     0.005097
      dx2y2   :     0.023913
      dxy     :     0.015563
  2 C s       :     3.194004  s :     3.194004
      pz      :     0.961479  p :     2.909748
      px      :     0.955286
      py      :     0.992983
      dz2     :     0.004436  d :     0.061790
      dxz     :     0.012780
      dyz     :     0.005303
      dx2y2   :     0.023657
      dxy     :     0.015615
  3 C s       :     3.277050  s :     3.277050
      pz      :     1.023065  p :     3.100315
      px      :     1.025118
      py      :     1.052132
      dz2     :     0.003392  d :     0.046121
      dxz     :     0.007708
      dyz     :     0.004334
      dx2y2   :     0.017377
      dxy     :     0.013310
  4 H s       :     0.810772  s :     0.810772
  5 H s       :     0.801209  s :     0.801209
  6 H s       :     0.799162  s :     0.799162
  7 H s       :     0.810203  s :     0.810203
  8 H s       :     0.800444  s :     0.800444
  9 H s       :     0.799212  s :     0.799212


                     *******************************
                     * LOEWDIN POPULATION ANALYSIS *
                     *******************************

----------------------
LOEWDIN ATOMIC CHARGES
----------------------
   0 C :   -0.206580
   1 C :   -0.114515
   2 C :   -0.114402
   3 C :   -0.206427
   4 H :    0.109791
   5 H :    0.105325
   6 H :    0.105763
   7 H :    0.109840
   8 H :    0.105415
   9 H :    0.105791

-------------------------------
LOEWDIN REDUCED ORBITAL CHARGES
-------------------------------
  0 C s       :     2.902125  s :     2.902125
      pz      :     1.017760  p :     3.213601
      px      :     1.110206
      py      :     1.085635
      dz2     :     0.006066  d :     0.090854
      dxz     :     0.013225
      dyz     :     0.005864
      dx2y2   :     0.036044
      dxy     :     0.029656
  1 C s       :     2.850096  s :     2.850096
      pz      :     0.961700  p :     3.132560
      px      :     1.100351
      py      :     1.070509
      dz2     :     0.009364  d :     0.131859
      dxz     :     0.025651
      dyz     :     0.008613
      dx2y2   :     0.048707
      dxy     :     0.039525
  2 C s       :     2.850103  s :     2.850103
      pz      :     0.962118  p :     3.132443
      px      :     1.102102
      py      :     1.068222
      dz2     :     0.009189  d :     0.131856
      dxz     :     0.025918
      dyz     :     0.008837
      dx2y2   :     0.048376
      dxy     :     0.039536
  3 C s       :     2.902156  s :     2.902156
      pz      :     1.018013  p :     3.213419
      px      :     1.111246
      py      :     1.084160
      dz2     :     0.005919  d :     0.090852
      dxz     :     0.013441
      dyz     :     0.006234
      dx2y2   :     0.035513
      dxy     :     0.029746
  4 H s       :     0.890209  s :     0.890209
  5 H s       :     0.894675  s :     0.894675
  6 H s       :     0.894237  s :     0.894237
  7 H s       :     0.890160  s :     0.890160
  8 H s       :     0.894585  s :     0.894585
  9 H s       :     0.894209  s :     0.894209


                      *****************************
                      * MAYER POPULATION ANALYSIS *
                      *****************************

  NA   - Mulliken gross atomic population
  ZA   - Total nuclear charge
  QA   - Mulliken gross atomic charge
  VA   - Mayer's total valence
  BVA  - Mayer's bonded valence
  FA   - Mayer's free valence

  ATOM       NA         ZA         QA         VA         BVA        FA
  0 C      6.4246     6.0000    -0.4246     3.8470     3.8470     0.0000
  1 C      6.1653     6.0000    -0.1653     3.8546     3.8546     0.0000
  2 C      6.1655     6.0000    -0.1655     3.8548     3.8548    -0.0000
  3 C      6.4235     6.0000    -0.4235     3.8472     3.8472    -0.0000
  4 H      0.8108     1.0000     0.1892     0.9282     0.9282    -0.0000
  5 H      0.8012     1.0000     0.1988     0.9253     0.9253     0.0000
  6 H      0.7992     1.0000     0.2008     0.9228     0.9228    -0.0000
  7 H      0.8102     1.0000     0.1898     0.9280     0.9280     0.0000
  8 H      0.8004     1.0000     0.1996     0.9250     0.9250     0.0000
  9 H      0.7992     1.0000     0.2008     0.9230     0.9230    -0.0000

  Mayer bond orders larger than 0.1
B(  0-C ,  1-C ) :   1.8692 B(  0-C ,  3-C ) :   0.1206 B(  0-C ,  8-H ) :   0.9346 
B(  0-C ,  9-H ) :   0.9380 B(  1-C ,  2-C ) :   1.0876 B(  1-C ,  7-H ) :   0.9334 
B(  2-C ,  3-C ) :   1.8694 B(  2-C ,  4-H ) :   0.9335 B(  3-C ,  5-H ) :   0.9347 
B(  3-C ,  6-H ) :   0.9380 

-------
TIMINGS
-------

Total SCF time: 0 days 0 hours 0 min 24 sec 

Total time                  ....      24.681 sec
Sum of individual times     ....      23.885 sec  ( 96.8%)

Fock matrix formation       ....      22.158 sec  ( 89.8%)
  XC integration            ....      17.490 sec  ( 78.9% of F)
    Basis function eval.    ....       0.018 sec  (  0.1% of XC)
    Density eval.           ....       0.012 sec  (  0.1% of XC)
    XC-Functional eval.     ....       0.013 sec  (  0.1% of XC)
    XC-Potential eval.      ....       0.015 sec  (  0.1% of XC)
Diagonalization             ....       0.138 sec  (  0.6%)
Density matrix formation    ....       0.079 sec  (  0.3%)
Population analysis         ....       0.004 sec  (  0.0%)
Initial guess               ....       0.217 sec  (  0.9%)
Orbital Transformation      ....       0.000 sec  (  0.0%)
Orbital Orthonormalization  ....       0.000 sec  (  0.0%)
DIIS solution               ....       0.094 sec  (  0.4%)
SOSCF solution              ....       0.159 sec  (  0.6%)
Grid generation             ....       1.036 sec  (  4.2%)

-------------------------   --------------------
FINAL SINGLE POINT ENERGY      -155.916414853066
-------------------------   --------------------



           ************************************************************
           *        Program running with 32 parallel MPI-processes    *
           *              working on a common directory               *
           ************************************************************
------------------------------------------------------------------------------
                         ORCA SCF GRADIENT CALCULATION
------------------------------------------------------------------------------

Gradient of the Kohn-Sham DFT energy:
Kohn-Sham wavefunction type      ... RKS
Hartree-Fock exchange scaling    ...    0.200
Number of operators              ...    1
Number of atoms                  ...   10
Basis set dimensions             ...   90
Integral neglect threshold       ... 2.5e-11
Integral primitive cutoff        ... 2.5e-12

Nuclear repulsion gradient       ... done
One Electron Gradient            ... done
Pre-screening matrix             ... done
Starting the two electron gradient:
Two electron gradient done
Exchange-correlation gradient    ... done

------------------
CARTESIAN GRADIENT
------------------

   1   C   :   -0.002475916   -0.006015272    0.002335933
   2   C   :    0.002230212    0.021483940   -0.006827000
   3   C   :   -0.002158458   -0.021369325    0.007108800
   4   C   :    0.002462298    0.005954105   -0.002374998
   5   H   :   -0.005164577    0.000255932    0.000914426
   6   H   :    0.002486874    0.000375366   -0.000756170
   7   H   :    0.002466827   -0.003671901    0.000682028
   8   H   :    0.005170638   -0.000272604   -0.000908561
   9   H   :   -0.002585976   -0.000457776    0.000346989
  10   H   :   -0.002431923    0.003717534   -0.000521446

Difference to translation invariance:
           :   -0.0000000000   -0.0000000000    0.0000000000

Norm of the cartesian gradient     ...    0.0350581288
RMS gradient                       ...    0.0064007093
MAX gradient                       ...    0.0214839403

-------
TIMINGS
-------

Total SCF gradient time            ...        0.556 sec

One electron gradient       ....       0.003 sec  (  0.5%)
Prescreening matrices       ....       0.008 sec  (  1.5%)
Two electron gradient       ....       0.144 sec  ( 25.9%)
XC gradient                 ....       0.093 sec  ( 16.7%)
------------------------------------------------------------------------------
                         ORCA GEOMETRY RELAXATION STEP
------------------------------------------------------------------------------

Reading the OPT-File                    .... done
Getting information on internals        .... done
Copying old internal coords+grads       .... done
Making the new internal coordinates     .... (new redundants).... done
Validating the new internal coordinates .... (new redundants).... done
Calculating the B-matrix                .... done
Calculating the G,G- and P matrices     .... done
Transforming gradient to internals      .... done
Projecting the internal gradient        .... done
Number of atoms                         ....  10
Number of internal coordinates          ....  33
Current Energy                          ....  -155.916414853 Eh
Current gradient norm                   ....     0.035058129 Eh/bohr
Maximum allowed component of the step   ....  0.300
Current trust radius                    ....  0.300
Evaluating the initial hessian          ....  (Almloef) done
Projecting the Hessian                  .... done
Forming the augmented Hessian           .... done
Diagonalizing the augmented Hessian     .... done
Last element of RFO vector              ....  0.997071622
Lowest eigenvalues of augmented Hessian:
 -0.001941399  0.014113921  0.027750769  0.027752394  0.041665967
Length of the computed step             ....  0.076698004
The final length of the internal step   ....  0.076698004
Converting the step to cartesian space:
 Initial RMS(Int)=    0.0133514087
Transforming coordinates:
 Iter   0:  RMS(Cart)=    0.0220394798 RMS(Int)=    1.5453450824
 Iter   1:  RMS(Cart)=    0.0002971290 RMS(Int)=    0.0001714366
 Iter   2:  RMS(Cart)=    0.0000035876 RMS(Int)=    0.0000028952
 Iter   3:  RMS(Cart)=    0.0000000659 RMS(Int)=    0.0000000479
done
Storing new coordinates                 .... done

                                .--------------------.
          ----------------------|Geometry convergence|-------------------------
          Item                value                   Tolerance       Converged
          ---------------------------------------------------------------------
          RMS gradient        0.0048241302            0.0000300000      NO
          MAX gradient        0.0116165206            0.0001000000      NO
          RMS step            0.0133514087            0.0006000000      NO
          MAX step            0.0305050078            0.0010000000      NO
          ........................................................
          Max(Bonds)      0.0119      Max(Angles)    1.75
          Max(Dihed)        0.97      Max(Improp)    0.00
          ---------------------------------------------------------------------

The optimization has not yet converged - more geometry cycles are needed


    ---------------------------------------------------------------------------
                         Redundant Internal Coordinates
                            (Angstroem and degrees)

        Definition                    Value    dE/dq     Step     New-Value
    ----------------------------------------------------------------------------
     1. B(C   1,C   0)                1.3356 -0.005362  0.0037    1.3393   
     2. B(C   2,C   1)                1.4764  0.010305 -0.0119    1.4644   
     3. B(C   3,C   2)                1.3356 -0.005352  0.0037    1.3393   
     4. B(H   4,C   2)                1.0865 -0.000220  0.0003    1.0868   
     5. B(H   5,C   3)                1.0858  0.000359 -0.0005    1.0853   
     6. B(H   6,C   3)                1.0851 -0.000017  0.0000    1.0851   
     7. B(H   7,C   1)                1.0865 -0.000235  0.0003    1.0868   
     8. B(H   8,C   0)                1.0858  0.000321 -0.0005    1.0854   
     9. B(H   9,C   0)                1.0851 -0.000018  0.0000    1.0851   
    10. A(C   1,C   0,H   9)          119.96 -0.004337    0.73    120.69   
    11. A(C   1,C   0,H   8)          121.17 -0.000508    0.14    121.30   
    12. A(H   8,C   0,H   9)          118.87  0.004844   -0.87    118.00   
    13. A(C   0,C   1,H   7)          118.97  0.000420    0.07    119.04   
    14. A(C   0,C   1,C   2)          121.09 -0.011617    1.67    122.76   
    15. A(C   2,C   1,H   7)          119.95  0.011197   -1.75    118.20   
    16. A(C   1,C   2,H   4)          119.94  0.011158   -1.74    118.20   
    17. A(C   1,C   2,C   3)          121.10 -0.011550    1.66    122.76   
    18. A(C   3,C   2,H   4)          118.96  0.000392    0.08    119.04   
    19. A(H   5,C   3,H   6)          118.88  0.004837   -0.87    118.01   
    20. A(C   2,C   3,H   6)          119.95 -0.004353    0.74    120.69   
    21. A(C   2,C   3,H   5)          121.17 -0.000484    0.13    121.30   
    22. D(C   2,C   1,C   0,H   9)    179.83 -0.000034    0.08    179.91   
    23. D(H   7,C   1,C   0,H   8)   -179.69  0.000273   -0.39   -180.08   
    24. D(C   2,C   1,C   0,H   8)      0.11  0.000194   -0.22     -0.11   
    25. D(H   7,C   1,C   0,H   9)      0.03  0.000046   -0.09     -0.06   
    26. D(C   3,C   2,C   1,H   7)      1.78  0.000221   -0.80      0.99   
    27. D(H   4,C   2,C   1,C   0)      1.78  0.000230   -0.81      0.97   
    28. D(C   3,C   2,C   1,C   0)   -178.01  0.000324   -0.97   -178.98   
    29. D(H   4,C   2,C   1,H   7)   -178.42  0.000127   -0.64   -179.06   
    30. D(H   6,C   3,C   2,H   4)      0.03  0.000035   -0.08     -0.04   
    31. D(H   6,C   3,C   2,C   1)    179.83 -0.000036    0.08    179.91   
    32. D(H   5,C   3,C   2,H   4)   -179.69  0.000219   -0.32   -180.00   
    33. D(H   5,C   3,C   2,C   1)      0.11  0.000148   -0.16     -0.05   
    ----------------------------------------------------------------------------

         *************************************************************
         *                GEOMETRY OPTIMIZATION CYCLE   2            *
         *************************************************************
---------------------------------
CARTESIAN COORDINATES (ANGSTROEM)
---------------------------------
  C      1.583440   -0.325918   -0.244341
  C      0.400687    0.299642   -0.185456
  C     -0.824923   -0.363424    0.264896
  C     -2.011474    0.256375    0.305014
  H     -0.761609   -1.402376    0.577513
  H     -2.116730    1.293043    0.001466
  H     -2.899081   -0.268097    0.643453
  H      0.340374    1.343126   -0.483336
  H      1.685864   -1.366866    0.045431
  H      2.470660    0.197806   -0.584936

----------------------------
CARTESIAN COORDINATES (A.U.)
----------------------------
  NO LB      ZA    FRAG     MASS         X           Y           Z
   0 C     6.0000    0    12.011    2.992268   -0.615896   -0.461738
   1 C     6.0000    0    12.011    0.757189    0.566241   -0.350462
   2 C     6.0000    0    12.011   -1.558879   -0.686771    0.500582
   3 C     6.0000    0    12.011   -3.801135    0.484479    0.576394
   4 H     1.0000    0     1.008   -1.439233   -2.650107    1.091341
   5 H     1.0000    0     1.008   -4.000040    2.443498    0.002770
   6 H     1.0000    0     1.008   -5.478469   -0.506629    1.215950
   7 H     1.0000    0     1.008    0.643214    2.538141   -0.913373
   8 H     1.0000    0     1.008    3.185821   -2.583002    0.085853
   9 H     1.0000    0     1.008    4.668871    0.373800   -1.105368

--------------------------------
INTERNAL COORDINATES (ANGSTROEM)
--------------------------------
 C      0   0   0     0.000000000000     0.00000000     0.00000000
 C      1   0   0     1.339289897823     0.00000000     0.00000000
 C      2   1   0     1.464443284845   122.76060299     0.00000000
 C      3   2   1     1.339277216143   122.76175132   181.01722820
 H      3   2   1     1.086811801726   118.19931525     0.96964082
 H      4   3   2     1.085311431284   121.30468087   359.94743893
 H      4   3   2     1.085107092740   120.68851165   179.90766078
 H      2   1   3     1.086844012370   119.03909182   180.03030777
 H      1   2   3     1.085370768918   121.30310583   359.89022867
 H      1   2   3     1.085104392226   120.69267553   179.90761471

---------------------------
INTERNAL COORDINATES (A.U.)
---------------------------
 C      0   0   0     0.000000000000     0.00000000     0.00000000
 C      1   0   0     2.530891120812     0.00000000     0.00000000
 C      2   1   0     2.767396747018   122.76060299     0.00000000
 C      3   2   1     2.530867155910   122.76175132   181.01722820
 H      3   2   1     2.053776664376   118.19931525     0.96964082
 H      4   3   2     2.050941375141   121.30468087   359.94743893
 H      4   3   2     2.050555231253   120.68851165   179.90766078
 H      2   1   3     2.053837533671   119.03909182   180.03030777
 H      1   2   3     2.051053507019   121.30310583   359.89022867
 H      1   2   3     2.050550128022   120.69267553   179.90761471



           ************************************************************
           *        Program running with 32 parallel MPI-processes    *
           *              working on a common directory               *
           ************************************************************


           ************************************************************
           *        Program running with 32 parallel MPI-processes    *
           *              working on a common directory               *
           ************************************************************

Diagonalization of the overlap matrix:
Smallest eigenvalue                        ... 1.801e-03
Time for diagonalization                   ...    0.002 sec
Threshold for overlap eigenvalues          ... 1.000e-08
Number of eigenvalues below threshold      ... 0
Time for construction of square roots      ...    0.030 sec
Total time needed                          ...    0.032 sec

-------------------
DFT GRID GENERATION
-------------------

General Integration Accuracy     IntAcc      ...  4.340
Radial Grid Type                 RadialGrid  ... Gauss-Chebyshev
Angular Grid (max. acc.)         AngularGrid ... Lebedev-110
Angular grid pruning method      GridPruning ... 3 (G Style)
Weight generation scheme         WeightScheme... Becke
Basis function cutoff            BFCut       ...    1.0000e-11
Integration weight cutoff        WCut        ...    1.0000e-14
Grids for H and He will be reduced by one unit

# of grid points (after initial pruning)     ...  11388 (   0.1 sec)
# of grid points (after weights+screening)   ...  10897 (   0.6 sec)
nearest neighbour list constructed           ...    0.0 sec
Grid point re-assignment to atoms done       ...    0.0 sec
Grid point division into batches done        ...    0.0 sec
Reduced shell lists constructed in    0.0 sec

Total number of grid points                  ...    10897
Total number of batches                      ...      176
Average number of points per batch           ...       61
Average number of grid points per atom       ...     1090
Average number of shells per batch           ...    37.29 (74.57%)
Average number of basis functions per batch  ...    69.86 (77.62%)
Average number of large shells per batch     ...    31.29 (83.91%)
Average number of large basis fcns per batch ...    58.14 (83.23%)
Maximum spatial batch extension              ...   4.59,  6.43, 13.58 au
Average spatial batch extension              ...   0.09,  0.11,  0.18 au

Time for grid setup =    0.688 sec

--------------
SCF ITERATIONS
--------------
ITER       Energy         Delta-E        Max-DP      RMS-DP      [F,P]     Damp
               ***  Starting incremental Fock matrix formation  ***
                      *** Initiating the SOSCF procedure ***
                      *** Re-Reading the Fockian *** 
                      *** Removing any level shift *** 
ITER      Energy       Delta-E        Grad      Rot      Max-DP    RMS-DP
  0   -155.91756645 -155.9175664495  0.002160  0.002160  0.002636  0.000185
               *** Restarting incremental Fock matrix formation ***
  1   -155.91779530  -0.0002288472  0.000820  0.002246  0.000794  0.000099
  2   -155.91781893  -0.0000236360  0.000420  0.001596  0.000617  0.000036
  3   -155.91781702   0.0000019137  0.000664  0.000939  0.000327  0.000023
  4   -155.91782054  -0.0000035185  0.000039  0.000062  0.000087  0.000005
  5   -155.91782054  -0.0000000016  0.000041  0.000030  0.000049  0.000003
                  ***Gradient check signals convergence***
              ***Rediagonalizing the Fockian in SOSCF/NRSCF***

               *****************************************************
               *                     SUCCESS                       *
               *           SCF CONVERGED AFTER   6 CYCLES          *
               *****************************************************

Setting up the final grid:

General Integration Accuracy     IntAcc      ...  4.670
Radial Grid Type                 RadialGrid  ... Gauss-Chebyshev
Angular Grid (max. acc.)         AngularGrid ... Lebedev-302
Angular grid pruning method      GridPruning ... 3 (G Style)
Weight generation scheme         WeightScheme... Becke
Basis function cutoff            BFCut       ...    1.0000e-11
Integration weight cutoff        WCut        ...    1.0000e-14
Grids for H and He will be reduced by one unit

# of grid points (after initial pruning)     ...  45212 (   0.0 sec)
# of grid points (after weights+screening)   ...  42840 (   0.0 sec)
nearest neighbour list constructed           ...    0.0 sec
Grid point re-assignment to atoms done       ...    0.0 sec
Grid point division into batches done        ...    0.2 sec
Reduced shell lists constructed in    0.2 sec

Total number of grid points                  ...    42840
Total number of batches                      ...      676
Average number of points per batch           ...       63
Average number of grid points per atom       ...     4284
Average number of shells per batch           ...    39.04 (78.09%)
Average number of basis functions per batch  ...    72.96 (81.06%)
Average number of large shells per batch     ...    32.52 (83.30%)
Average number of large basis fcns per batch ...    61.04 (83.67%)
Maximum spatial batch extension              ...   4.90,  7.42, 17.37 au
Average spatial batch extension              ...   0.06,  0.07,  0.09 au

Final grid set up in    0.2 sec
Final integration                            ... done (   0.2 sec)
Change in XC energy                          ...    -0.000034843
Integrated number of electrons               ...    29.999973706
Previous integrated no of electrons          ...    29.993176926
Total Energy       :         -155.91785541 Eh           -4242.74054 eV
  Last Energy change         ...   -3.0518e-08  Tolerance :   1.0000e-08
  Last MAX-Density change    ...    5.1125e-06  Tolerance :   1.0000e-07
             **** THE GBW FILE WAS UPDATED (buta_opt_freq.gbw) ****
             **** DENSITY FILE WAS UPDATED (buta_opt_freq.scfp.tmp) ****
             **** ENERGY FILE WAS UPDATED (buta_opt_freq.en.tmp) ****
Total SCF time: 0 days 0 hours 0 min 15 sec 

-------------------------   --------------------
FINAL SINGLE POINT ENERGY      -155.917855412905
-------------------------   --------------------



           ************************************************************
           *        Program running with 32 parallel MPI-processes    *
           *              working on a common directory               *
           ************************************************************
------------------------------------------------------------------------------
                         ORCA SCF GRADIENT CALCULATION
------------------------------------------------------------------------------

Gradient of the Kohn-Sham DFT energy:
Kohn-Sham wavefunction type      ... RKS
Hartree-Fock exchange scaling    ...    0.200
Number of operators              ...    1
Number of atoms                  ...   10
Basis set dimensions             ...   90
Integral neglect threshold       ... 2.5e-11
Integral primitive cutoff        ... 2.5e-12

Nuclear repulsion gradient       ... done
One Electron Gradient            ... done
Pre-screening matrix             ... done
Starting the two electron gradient:
Two electron gradient done
Exchange-correlation gradient    ... done

------------------
CARTESIAN GRADIENT
------------------

   1   C   :    0.001563441   -0.005226317    0.001118267
   2   C   :   -0.001877740    0.012370887   -0.003366000
   3   C   :    0.001872358   -0.012363741    0.003384763
   4   C   :   -0.001616498    0.005155851   -0.001417610
   5   H   :   -0.002665241    0.000769745    0.000369303
   6   H   :    0.001587656   -0.000248712   -0.000174982
   7   H   :    0.001146208   -0.002261949    0.000449273
   8   H   :    0.002714251   -0.000693871   -0.000139160
   9   H   :   -0.001584667    0.000233087    0.000200121
  10   H   :   -0.001139767    0.002265019   -0.000423976

Difference to translation invariance:
           :    0.0000000000   -0.0000000000   -0.0000000000

Norm of the cartesian gradient     ...    0.0207868745
RMS gradient                       ...    0.0037951467
MAX gradient                       ...    0.0123708872

-------
TIMINGS
-------

Total SCF gradient time            ...        0.547 sec

One electron gradient       ....       0.004 sec  (  0.8%)
Prescreening matrices       ....       0.009 sec  (  1.6%)
Two electron gradient       ....       0.138 sec  ( 25.3%)
XC gradient                 ....       0.099 sec  ( 18.2%)
------------------------------------------------------------------------------
                         ORCA GEOMETRY RELAXATION STEP
------------------------------------------------------------------------------

Reading the OPT-File                    .... done
Getting information on internals        .... done
Copying old internal coords+grads       .... done
Making the new internal coordinates     .... (new redundants).... done
Validating the new internal coordinates .... (new redundants).... done
Calculating the B-matrix                .... done
Calculating the G,G- and P matrices     .... done
Transforming gradient to internals      .... done
Projecting the internal gradient        .... done
Number of atoms                         ....  10
Number of internal coordinates          ....  33
Current Energy                          ....  -155.917855413 Eh
Current gradient norm                   ....     0.020786874 Eh/bohr
Maximum allowed component of the step   ....  0.300
Current trust radius                    ....  0.300
Updating the Hessian (BFGS)             .... done
Forming the augmented Hessian           .... done
Diagonalizing the augmented Hessian     .... done
Last element of RFO vector              ....  0.997018738
Lowest eigenvalues of augmented Hessian:
 -0.000952851  0.014027989  0.027751083  0.027764449  0.041666110
Length of the computed step             ....  0.077390525
The final length of the internal step   ....  0.077390525
Converting the step to cartesian space:
 Initial RMS(Int)=    0.0134719612
Transforming coordinates:
 Iter   0:  RMS(Cart)=    0.0193986573 RMS(Int)=    1.0938245784
 Iter   1:  RMS(Cart)=    0.0002776474 RMS(Int)=    0.0001711175
 Iter   2:  RMS(Cart)=    0.0000038546 RMS(Int)=    0.0000031738
 Iter   3:  RMS(Cart)=    0.0000000837 RMS(Int)=    0.0000000592
done
Storing new coordinates                 .... done

                                .--------------------.
          ----------------------|Geometry convergence|-------------------------
          Item                value                   Tolerance       Converged
          ---------------------------------------------------------------------
          Energy change      -0.0014405598            0.0000010000      NO
          RMS gradient        0.0023211605            0.0000300000      NO
          MAX gradient        0.0056823002            0.0001000000      NO
          RMS step            0.0134719612            0.0006000000      NO
          MAX step            0.0307817619            0.0010000000      NO
          ........................................................
          Max(Bonds)      0.0108      Max(Angles)    1.76
          Max(Dihed)        0.87      Max(Improp)    0.00
          ---------------------------------------------------------------------

The optimization has not yet converged - more geometry cycles are needed


    ---------------------------------------------------------------------------
                         Redundant Internal Coordinates
                            (Angstroem and degrees)

        Definition                    Value    dE/dq     Step     New-Value
    ----------------------------------------------------------------------------
     1. B(C   1,C   0)                1.3393  0.000206 -0.0001    1.3392   
     2. B(C   2,C   1)                1.4644  0.004591 -0.0108    1.4537   
     3. B(C   3,C   2)                1.3393  0.000196 -0.0001    1.3392   
     4. B(H   4,C   2)                1.0868 -0.000784  0.0022    1.0890   
     5. B(H   5,C   3)                1.0853 -0.000347  0.0009    1.0862   
     6. B(H   6,C   3)                1.0851  0.000299 -0.0008    1.0843   
     7. B(H   7,C   1)                1.0868 -0.000777  0.0022    1.0890   
     8. B(H   8,C   0)                1.0854 -0.000324  0.0009    1.0862   
     9. B(H   9,C   0)                1.0851  0.000297 -0.0008    1.0843   
    10. A(C   1,C   0,H   9)          120.69 -0.002419    0.82    121.51   
    11. A(C   1,C   0,H   8)          121.30 -0.000409    0.19    121.50   
    12. A(H   8,C   0,H   9)          118.00  0.002828   -1.02    116.99   
    13. A(C   0,C   1,H   7)          119.04  0.000085    0.11    119.15   
    14. A(C   0,C   1,C   2)          122.76 -0.005682    1.65    124.41   
    15. A(C   2,C   1,H   7)          118.20  0.005598   -1.76    116.44   
    16. A(C   1,C   2,H   4)          118.20  0.005585   -1.76    116.44   
    17. A(C   1,C   2,C   3)          122.76 -0.005662    1.65    124.41   
    18. A(C   3,C   2,H   4)          119.04  0.000077    0.11    119.15   
    19. A(H   5,C   3,H   6)          118.01  0.002829   -1.02    116.99   
    20. A(C   2,C   3,H   6)          120.69 -0.002428    0.82    121.51   
    21. A(C   2,C   3,H   5)          121.30 -0.000401    0.19    121.50   
    22. D(C   2,C   1,C   0,H   9)    179.91 -0.000010    0.03    179.93   
    23. D(H   7,C   1,C   0,H   8)    179.92  0.000006   -0.02    179.90   
    24. D(C   2,C   1,C   0,H   8)     -0.11  0.000002   -0.01     -0.12   
    25. D(H   7,C   1,C   0,H   9)     -0.06 -0.000006    0.01     -0.05   
    26. D(C   3,C   2,C   1,H   7)      0.99  0.000125   -0.86      0.13   
    27. D(H   4,C   2,C   1,C   0)      0.97  0.000127   -0.87      0.10   
    28. D(C   3,C   2,C   1,C   0)   -178.98  0.000130   -0.87   -179.85   
    29. D(H   4,C   2,C   1,H   7)   -179.06  0.000122   -0.85   -179.91   
    30. D(H   6,C   3,C   2,H   4)     -0.04 -0.000005    0.01     -0.03   
    31. D(H   6,C   3,C   2,C   1)    179.91 -0.000006    0.01    179.92   
    32. D(H   5,C   3,C   2,H   4)    180.00 -0.000004    0.01    180.00   
    33. D(H   5,C   3,C   2,C   1)     -0.05 -0.000004    0.01     -0.04   
    ----------------------------------------------------------------------------

         *************************************************************
         *                GEOMETRY OPTIMIZATION CYCLE   3            *
         *************************************************************
---------------------------------
CARTESIAN COORDINATES (ANGSTROEM)
---------------------------------
  C      1.592101   -0.327577   -0.242064
  C      0.402040    0.284107   -0.186550
  C     -0.828278   -0.350988    0.256260
  C     -2.018831    0.259978    0.309062
  H     -0.753385   -1.394046    0.560123
  H     -2.137029    1.298990    0.015111
  H     -2.908325   -0.260185    0.646565
  H      0.327365    1.327597   -0.489033
  H      1.710410   -1.366578    0.051873
  H      2.481141    0.192014   -0.581643

----------------------------
CARTESIAN COORDINATES (A.U.)
----------------------------
  NO LB      ZA    FRAG     MASS         X           Y           Z
   0 C     6.0000    0    12.011    3.008634   -0.619031   -0.457434
   1 C     6.0000    0    12.011    0.759745    0.536884   -0.352528
   2 C     6.0000    0    12.011   -1.565219   -0.663271    0.484262
   3 C     6.0000    0    12.011   -3.815038    0.491288    0.584042
   4 H     1.0000    0     1.008   -1.423692   -2.634364    1.058480
   5 H     1.0000    0     1.008   -4.038400    2.454736    0.028555
   6 H     1.0000    0     1.008   -5.495937   -0.491679    1.221831
   7 H     1.0000    0     1.008    0.618631    2.508795   -0.924139
   8 H     1.0000    0     1.008    3.232207   -2.582458    0.098026
   9 H     1.0000    0     1.008    4.688677    0.362854   -1.099147

--------------------------------
INTERNAL COORDINATES (ANGSTROEM)
--------------------------------
 C      0   0   0     0.000000000000     0.00000000     0.00000000
 C      1   0   0     1.339210355498     0.00000000     0.00000000
 C      2   1   0     1.453653437564   124.41461010     0.00000000
 C      3   2   1     1.339210453833   124.40961620   180.14761206
 H      3   2   1     1.088995250122   116.43981448     0.10397646
 H      4   3   2     1.086242809535   121.49625235   359.95763793
 H      4   3   2     1.084286619658   121.51357907   179.92201385
 H      2   1   3     1.089010694270   119.14869133   180.01858156
 H      1   2   3     1.086240807022   121.49710744   359.88362871
 H      1   2   3     1.084288610310   121.51493308   179.93289256

---------------------------
INTERNAL COORDINATES (A.U.)
---------------------------
 C      0   0   0     0.000000000000     0.00000000     0.00000000
 C      1   0   0     2.530740807602     0.00000000     0.00000000
 C      2   1   0     2.747006890630   124.41461010     0.00000000
 C      3   2   1     2.530740993429   124.40961620   180.14761206
 H      3   2   1     2.057902783872   116.43981448     0.10397646
 H      4   3   2     2.052701424962   121.49625235   359.95763793
 H      4   3   2     2.049004761830   121.51357907   179.92201385
 H      2   1   3     2.057931969082   119.14869133   180.01858156
 H      1   2   3     2.052697640760   121.49710744   359.88362871
 H      1   2   3     2.049008523617   121.51493308   179.93289256



           ************************************************************
           *        Program running with 32 parallel MPI-processes    *
           *              working on a common directory               *
           ************************************************************


           ************************************************************
           *        Program running with 32 parallel MPI-processes    *
           *              working on a common directory               *
           ************************************************************

Diagonalization of the overlap matrix:
Smallest eigenvalue                        ... 1.815e-03
Time for diagonalization                   ...    0.008 sec
Threshold for overlap eigenvalues          ... 1.000e-08
Number of eigenvalues below threshold      ... 0
Time for construction of square roots      ...    0.010 sec
Total time needed                          ...    0.018 sec

-------------------
DFT GRID GENERATION
-------------------

General Integration Accuracy     IntAcc      ...  4.340
Radial Grid Type                 RadialGrid  ... Gauss-Chebyshev
Angular Grid (max. acc.)         AngularGrid ... Lebedev-110
Angular grid pruning method      GridPruning ... 3 (G Style)
Weight generation scheme         WeightScheme... Becke
Basis function cutoff            BFCut       ...    1.0000e-11
Integration weight cutoff        WCut        ...    1.0000e-14
Grids for H and He will be reduced by one unit

# of grid points (after initial pruning)     ...  11388 (   0.0 sec)
# of grid points (after weights+screening)   ...  10897 (   0.6 sec)
nearest neighbour list constructed           ...    0.0 sec
Grid point re-assignment to atoms done       ...    0.0 sec
Grid point division into batches done        ...    0.0 sec
Reduced shell lists constructed in    0.0 sec

Total number of grid points                  ...    10897
Total number of batches                      ...      176
Average number of points per batch           ...       61
Average number of grid points per atom       ...     1090
Average number of shells per batch           ...    37.43 (74.86%)
Average number of basis functions per batch  ...    70.00 (77.78%)
Average number of large shells per batch     ...    31.00 (82.82%)
Average number of large basis fcns per batch ...    57.57 (82.24%)
Maximum spatial batch extension              ...   4.83,  6.36, 13.57 au
Average spatial batch extension              ...   0.10,  0.11,  0.18 au

Time for grid setup =    0.684 sec

--------------
SCF ITERATIONS
--------------
ITER       Energy         Delta-E        Max-DP      RMS-DP      [F,P]     Damp
               ***  Starting incremental Fock matrix formation  ***
                      *** Initiating the SOSCF procedure ***
                      *** Re-Reading the Fockian *** 
                      *** Removing any level shift *** 
ITER      Energy       Delta-E        Grad      Rot      Max-DP    RMS-DP
  0   -155.91811814 -155.9181181435  0.002115  0.002115  0.002409  0.000175
               *** Restarting incremental Fock matrix formation ***
  1   -155.91831831  -0.0002001712  0.000676  0.001847  0.000714  0.000091
  2   -155.91833826  -0.0000199445  0.000239  0.000931  0.000344  0.000022
  3   -155.91833756   0.0000006957  0.000412  0.000526  0.000210  0.000013
  4   -155.91833892  -0.0000013548  0.000016  0.000040  0.000037  0.000002
  5   -155.91833892  -0.0000000040  0.000013  0.000011  0.000020  0.000001
  6   -155.91833893  -0.0000000036  0.000003  0.000012  0.000006  0.000000
  7   -155.91833893   0.0000000001  0.000005  0.000009  0.000004  0.000000
                  ***Gradient check signals convergence***
              ***Rediagonalizing the Fockian in SOSCF/NRSCF***

               *****************************************************
               *                     SUCCESS                       *
               *           SCF CONVERGED AFTER   8 CYCLES          *
               *****************************************************

Setting up the final grid:

General Integration Accuracy     IntAcc      ...  4.670
Radial Grid Type                 RadialGrid  ... Gauss-Chebyshev
Angular Grid (max. acc.)         AngularGrid ... Lebedev-302
Angular grid pruning method      GridPruning ... 3 (G Style)
Weight generation scheme         WeightScheme... Becke
Basis function cutoff            BFCut       ...    1.0000e-11
Integration weight cutoff        WCut        ...    1.0000e-14
Grids for H and He will be reduced by one unit

# of grid points (after initial pruning)     ...  45212 (   0.0 sec)
# of grid points (after weights+screening)   ...  42837 (   0.0 sec)
nearest neighbour list constructed           ...    0.0 sec
Grid point re-assignment to atoms done       ...    0.0 sec
Grid point division into batches done        ...    0.2 sec
Reduced shell lists constructed in    0.2 sec

Total number of grid points                  ...    42837
Total number of batches                      ...      676
Average number of points per batch           ...       63
Average number of grid points per atom       ...     4284
Average number of shells per batch           ...    39.00 (78.00%)
Average number of basis functions per batch  ...    72.83 (80.92%)
Average number of large shells per batch     ...    32.57 (83.50%)
Average number of large basis fcns per batch ...    60.74 (83.40%)
Maximum spatial batch extension              ...   5.16,  7.39, 17.34 au
Average spatial batch extension              ...   0.06,  0.07,  0.09 au

Final grid set up in    0.4 sec
Final integration                            ... done (   0.2 sec)
Change in XC energy                          ...    -0.000015445
Integrated number of electrons               ...    29.999975815
Previous integrated no of electrons          ...    29.993315798
Total Energy       :         -155.91835437 Eh           -4242.75412 eV
  Last Energy change         ...   -2.1788e-10  Tolerance :   1.0000e-08
  Last MAX-Density change    ...    2.3094e-06  Tolerance :   1.0000e-07
             **** THE GBW FILE WAS UPDATED (buta_opt_freq.gbw) ****
             **** DENSITY FILE WAS UPDATED (buta_opt_freq.scfp.tmp) ****
             **** ENERGY FILE WAS UPDATED (buta_opt_freq.en.tmp) ****
Total SCF time: 0 days 0 hours 0 min 20 sec 

-------------------------   --------------------
FINAL SINGLE POINT ENERGY      -155.918354370904
-------------------------   --------------------



           ************************************************************
           *        Program running with 32 parallel MPI-processes    *
           *              working on a common directory               *
           ************************************************************
------------------------------------------------------------------------------
                         ORCA SCF GRADIENT CALCULATION
------------------------------------------------------------------------------

Gradient of the Kohn-Sham DFT energy:
Kohn-Sham wavefunction type      ... RKS
Hartree-Fock exchange scaling    ...    0.200
Number of operators              ...    1
Number of atoms                  ...   10
Basis set dimensions             ...   90
Integral neglect threshold       ... 2.5e-11
Integral primitive cutoff        ... 2.5e-12

Nuclear repulsion gradient       ... done
One Electron Gradient            ... done
Pre-screening matrix             ... done
Starting the two electron gradient:
Two electron gradient done
Exchange-correlation gradient    ... done

------------------
CARTESIAN GRADIENT
------------------

   1   C   :    0.002193628   -0.001452788   -0.000041740
   2   C   :   -0.002880661    0.000598538    0.000410072
   3   C   :    0.002874673   -0.000615673   -0.000418529
   4   C   :   -0.002206289    0.001439340   -0.000024262
   5   H   :   -0.000110310    0.000222854   -0.000076625
   6   H   :    0.000480555   -0.000091096    0.000012290
   7   H   :    0.000342784   -0.000468382    0.000024575
   8   H   :    0.000122471   -0.000196149    0.000138604
   9   H   :   -0.000465895    0.000113665    0.000051002
  10   H   :   -0.000350956    0.000449691   -0.000075388

Difference to translation invariance:
           :    0.0000000000   -0.0000000000   -0.0000000000

Norm of the cartesian gradient     ...    0.0057260659
RMS gradient                       ...    0.0010454318
MAX gradient                       ...    0.0028806610

-------
TIMINGS
-------

Total SCF gradient time            ...        0.552 sec

One electron gradient       ....       0.003 sec  (  0.6%)
Prescreening matrices       ....       0.008 sec  (  1.5%)
Two electron gradient       ....       0.139 sec  ( 25.3%)
XC gradient                 ....       0.094 sec  ( 17.1%)
------------------------------------------------------------------------------
                         ORCA GEOMETRY RELAXATION STEP
------------------------------------------------------------------------------

Reading the OPT-File                    .... done
Getting information on internals        .... done
Copying old internal coords+grads       .... done
Making the new internal coordinates     .... (new redundants).... done
Validating the new internal coordinates .... (new redundants).... done
Calculating the B-matrix                .... done
Calculating the G,G- and P matrices     .... done
Transforming gradient to internals      .... done
Projecting the internal gradient        .... done
Number of atoms                         ....  10
Number of internal coordinates          ....  33
Current Energy                          ....  -155.918354371 Eh
Current gradient norm                   ....     0.005726066 Eh/bohr
Maximum allowed component of the step   ....  0.300
Current trust radius                    ....  0.300
Updating the Hessian (BFGS)             .... done
Forming the augmented Hessian           .... done
Diagonalizing the augmented Hessian     .... done
Last element of RFO vector              ....  0.999968507
Lowest eigenvalues of augmented Hessian:
 -0.000018818  0.014013424  0.027751091  0.027764071  0.041663324
Length of the computed step             ....  0.007936556
The final length of the internal step   ....  0.007936556
Converting the step to cartesian space:
 Initial RMS(Int)=    0.0013815771
Transforming coordinates:
 Iter   0:  RMS(Cart)=    0.0015061913 RMS(Int)=    0.0013817556
 Iter   1:  RMS(Cart)=    0.0000015415 RMS(Int)=    0.0000015128
 Iter   2:  RMS(Cart)=    0.0000000020 RMS(Int)=    0.0000000028
done
Storing new coordinates                 .... done

                                .--------------------.
          ----------------------|Geometry convergence|-------------------------
          Item                value                   Tolerance       Converged
          ---------------------------------------------------------------------
          Energy change      -0.0004989580            0.0000010000      NO
          RMS gradient        0.0005349232            0.0000300000      NO
          MAX gradient        0.0016285701            0.0001000000      NO
          RMS step            0.0013815771            0.0006000000      NO
          MAX step            0.0028820680            0.0010000000      NO
          ........................................................
          Max(Bonds)      0.0014      Max(Angles)    0.17
          Max(Dihed)        0.10      Max(Improp)    0.00
          ---------------------------------------------------------------------

The optimization has not yet converged - more geometry cycles are needed


    ---------------------------------------------------------------------------
                         Redundant Internal Coordinates
                            (Angstroem and degrees)

        Definition                    Value    dE/dq     Step     New-Value
    ----------------------------------------------------------------------------
     1. B(C   1,C   0)                1.3392  0.001629 -0.0011    1.3381   
     2. B(C   2,C   1)                1.4537 -0.001522  0.0014    1.4551   
     3. B(C   3,C   2)                1.3392  0.001627 -0.0011    1.3381   
     4. B(H   4,C   2)                1.0890 -0.000241  0.0004    1.0894   
     5. B(H   5,C   3)                1.0862 -0.000147  0.0002    1.0865   
[...]
     15       0.000000   0.000000   0.000000   0.000000   0.000000   0.000000
     16       0.000000   0.000000   0.000000   0.000000   0.000000   0.000000
     17       0.000000   0.000000   0.000000   0.000000   0.000000   0.000000
     18       0.000000   0.000000   0.000000   0.000000   0.000000   0.000000
     19       0.000000   0.000000   0.000000   0.000000   0.000000   0.000000
     20       0.000000   0.000000   0.000000   0.000000   0.000000   0.000000
     21       0.000000   0.000000   0.000000   0.000000   0.000000   0.000000
     22       0.000000   0.000000   0.000000   0.000000   0.000000   0.000000
     23       0.000000   0.000000   0.000000   0.000000   0.000000   0.000000
     24       0.000000   0.000000   0.000000   0.000000   0.000000   0.000000
     25       0.000000   0.000000   0.000000   0.000000   0.000000   0.000000
     26       0.000000   0.000000   0.000000   0.000000   0.000000   0.000000
     27       0.000000   0.000000   0.000000   0.000000   0.000000   0.000000
     28       0.000000   0.000000   0.000000   0.000000   0.000000   0.000000
     29       0.000000   0.000000   0.000000   0.000000   0.000000   0.000000
                  6          7          8          9         10         11    
      0       0.033525   0.063864   0.212218  -0.003308   0.002023  -0.119787
      1       0.050365   0.120614  -0.013267  -0.005068   0.002776  -0.035703
      2       0.167679  -0.048791  -0.038829  -0.015950   0.008761   0.036329
      3      -0.038259  -0.067920   0.113349   0.010173  -0.032640  -0.092449
      4      -0.057382  -0.152852  -0.131384   0.015605  -0.049565  -0.098193
      5      -0.191291   0.059421   0.017369   0.050335  -0.162062   0.048155
      6      -0.038261  -0.067922  -0.113337   0.010232   0.032643   0.092449
      7      -0.057381  -0.152855   0.131403   0.015537   0.049562   0.098193
      8      -0.191291   0.059412  -0.017309   0.050344   0.162062  -0.048155
      9       0.033536   0.063865  -0.212221  -0.003199  -0.002025   0.119787
     10       0.050362   0.120614   0.013262  -0.005077  -0.002774   0.035703
     11       0.167678  -0.048790   0.038812  -0.015969  -0.008761  -0.036329
     12      -0.075652  -0.226088  -0.237467  -0.061083  -0.018467  -0.006900
     13      -0.115299  -0.152990   0.124752  -0.092445  -0.027764   0.102016
     14      -0.381113   0.089892   0.009725  -0.303354  -0.091129  -0.029108
     15       0.080746   0.388222  -0.522143   0.072604   0.060175  -0.336710
     16       0.124817   0.139502  -0.003128   0.109806   0.090653   0.005892
     17       0.411734  -0.118235   0.106767   0.359371   0.296217   0.072256
     18       0.051266  -0.113800  -0.055225  -0.094115  -0.114528   0.407975
     19       0.074102   0.397639  -0.237940  -0.142422  -0.172080  -0.405174
     20       0.250733  -0.098282   0.084336  -0.465737  -0.564267   0.044826
     21      -0.075640  -0.226083   0.237386  -0.061201   0.018456   0.006904
     22      -0.115305  -0.152981  -0.124875  -0.092389   0.027768  -0.102009
     23      -0.381114   0.089919  -0.010128  -0.303347   0.091132   0.029132
     24       0.080724   0.388220   0.522241   0.072317  -0.060173   0.336712
     25       0.124824   0.139499   0.003278   0.109812  -0.090657  -0.005888
     26       0.411736  -0.118246  -0.106279   0.359427  -0.296218  -0.072244
     27       0.051253  -0.113801   0.055102  -0.094126   0.114510  -0.407982
     28       0.074106   0.397639   0.237754  -0.142555   0.172088   0.405160
     29       0.250734  -0.098281  -0.084944  -0.465692   0.564267  -0.044865
                 12         13         14         15         16         17    
      0      -0.022762  -0.022761   0.004765  -0.046138  -0.000587   0.043532
      1      -0.034504  -0.033608   0.007201  -0.064779  -0.000888   0.048281
      2      -0.113646  -0.108796   0.023491   0.028764  -0.004057  -0.023518
      3       0.007552   0.006137  -0.016507   0.006444   0.011638  -0.079122
      4       0.011354   0.009510  -0.025009   0.037606   0.017544  -0.166956
      5       0.037694   0.033949  -0.081424  -0.012398   0.058070   0.067151
      6       0.007557  -0.006136   0.016510   0.006443   0.011641   0.079122
      7       0.011357  -0.009506   0.025011   0.037605   0.017544   0.166955
      8       0.037701  -0.033942   0.081422  -0.012404   0.058069  -0.067152
      9      -0.022769   0.022759  -0.004772  -0.046137  -0.000585  -0.043531
     10      -0.034508   0.033598  -0.007207  -0.064778  -0.000886  -0.048280
     11      -0.113670   0.108773  -0.023487   0.028765  -0.004058   0.023519
     12      -0.004959  -0.013448  -0.113151   0.358147  -0.113184   0.505924
     13      -0.005798  -0.019934  -0.171255   0.040978  -0.169155   0.175166
     14      -0.018308  -0.068120  -0.561303  -0.087677  -0.552841  -0.154955
     15       0.091950  -0.106646  -0.047801   0.402597  -0.061641   0.270864
     16       0.141123  -0.158005  -0.073095  -0.035179  -0.090990  -0.024179
     17       0.460821  -0.515910  -0.238822  -0.070912  -0.297614  -0.046908
     18       0.094290  -0.077098   0.050200  -0.287761   0.043115  -0.186479
     19       0.140556  -0.123759   0.075842   0.317998   0.061673   0.186120
     20       0.462708  -0.395171   0.248429  -0.036360   0.206869  -0.018870
     21      -0.004966   0.013450   0.113182   0.358134  -0.113177  -0.505924
     22      -0.005805   0.019935   0.171275   0.040959  -0.169172  -0.175168
     23      -0.018319   0.068116   0.561291  -0.087737  -0.552836   0.154951
     24       0.091919   0.106655   0.047836   0.402594  -0.061623  -0.270869
     25       0.141097   0.158042   0.073095  -0.035186  -0.090996   0.024175
     26       0.460712   0.516004   0.238815  -0.070936  -0.297615   0.046896
     27       0.094253   0.077101  -0.050225  -0.287759   0.043099   0.186481
     28       0.140543   0.123797  -0.075810   0.318003   0.061687  -0.186116
     29       0.462627   0.395266  -0.248435  -0.036344   0.206869   0.018880
                 18         19         20         21         22         23    
      0      -0.037006  -0.020413  -0.024308   0.036970  -0.231197  -0.205768
      1       0.083558   0.075884  -0.002316  -0.037296   0.102362   0.097723
      2      -0.018067  -0.019059   0.005637   0.003942   0.015481   0.011727
      3       0.019316  -0.014986   0.098069   0.078433   0.206667   0.303581
      4      -0.078272  -0.071023  -0.027993   0.008712  -0.075557  -0.084019
      5       0.020064   0.024721  -0.011242  -0.018487  -0.018725  -0.035717
      6      -0.019316  -0.014986   0.098069  -0.078432   0.206666  -0.303579
      7       0.078272  -0.071025  -0.027994  -0.008712  -0.075560   0.084021
      8      -0.020060   0.024720  -0.011246   0.018487  -0.018732   0.035724
      9       0.037005  -0.020413  -0.024308  -0.036970  -0.231196   0.205765
     10      -0.083558   0.075886  -0.002316   0.037297   0.102364  -0.097725
     11       0.018063  -0.019057   0.005638  -0.003941   0.015489  -0.011735
     12      -0.554456   0.627572  -0.132460   0.243746  -0.148063   0.374405
     13       0.075902  -0.069044  -0.039501  -0.010386  -0.106554   0.110352
     14       0.089170  -0.105826   0.038432  -0.045850   0.062112  -0.109415
     15       0.388408  -0.259722  -0.438671   0.398927   0.392346  -0.272346
     16      -0.071767   0.061077  -0.009971   0.053626   0.161602  -0.147991
     17      -0.056779   0.034140   0.091571  -0.096753  -0.128107   0.100026
     18       0.030257   0.053959  -0.307781   0.268741   0.048009   0.001632
     19      -0.054905  -0.049953   0.410640  -0.423987  -0.374446   0.265360
     20       0.010622   0.004209  -0.063185   0.075274   0.104639  -0.081544
     21       0.554470   0.627565  -0.132459  -0.243748  -0.148062  -0.374406
     22      -0.075900  -0.069039  -0.039502   0.010385  -0.106555  -0.110354
     23      -0.089160  -0.105815   0.038427   0.045848   0.062107   0.109412
     24      -0.388415  -0.259718  -0.438670  -0.398931   0.392347   0.272348
     25       0.071763   0.061073  -0.009974  -0.053629   0.161606   0.147994
     26       0.056764   0.034130   0.091560   0.096745  -0.128096  -0.100022
     27      -0.030255   0.053961  -0.307783  -0.268746   0.048012  -0.001628
     28       0.054907  -0.049951   0.410634   0.423984  -0.374443  -0.265359
     29      -0.010616   0.004215  -0.063199  -0.075288   0.104647   0.081556
                 24         25         26         27         28         29    
      0      -0.020092   0.036753   0.032601   0.012953   0.035806  -0.035630
      1       0.009017  -0.024323  -0.029908  -0.019966   0.054559  -0.054201
      2       0.001298   0.000026   0.002577   0.003488  -0.023923   0.023776
      3      -0.001834  -0.002357  -0.005943  -0.008804  -0.000779   0.001715
      4       0.048569  -0.019466   0.030254   0.054042   0.007649  -0.009282
      5      -0.014471   0.006424  -0.008053  -0.014724  -0.002178   0.002490
      6       0.001834  -0.002357   0.005948  -0.008800   0.000778   0.001716
      7      -0.048573  -0.019466  -0.030288   0.054020  -0.007642  -0.009288
      8       0.014470   0.006424   0.008061  -0.014717   0.002176   0.002492
      9       0.020092   0.036751  -0.032609   0.012933  -0.035779  -0.035657
     10      -0.009017  -0.024323   0.029922  -0.019948  -0.054518  -0.054242
     11      -0.001298   0.000025  -0.002578   0.003486   0.023906   0.023794
     12      -0.041287  -0.014382  -0.023808   0.044628  -0.008308  -0.005881
     13       0.579184   0.248801   0.330293  -0.618867   0.072842   0.097112
     14      -0.168518  -0.073090  -0.095985   0.179999  -0.020601  -0.028479
     15      -0.022401  -0.052236   0.054010  -0.026882  -0.050725  -0.051892
     16       0.236352   0.480125  -0.492749   0.255886   0.394738   0.395608
     17      -0.067833  -0.136416   0.139866  -0.072857  -0.110553  -0.110606
     18      -0.214824  -0.343219   0.273949  -0.066991   0.465738   0.462201
     19      -0.131537  -0.207150   0.164118  -0.043016   0.265841   0.264276
     20       0.083616   0.132665  -0.105496   0.026683  -0.175331  -0.174125
     21       0.041288  -0.014384   0.023782   0.044649   0.008313  -0.005875
     22      -0.579144   0.248808  -0.329906  -0.619101  -0.072915   0.097057
     23       0.168523  -0.073099   0.095881   0.180084   0.020625  -0.028467
     24       0.022401  -0.052239  -0.053995  -0.026916   0.050767  -0.051857
     25      -0.236348   0.480130   0.492576   0.256186  -0.395039   0.395315
     26       0.067837  -0.136427  -0.139826  -0.072947   0.110645  -0.110531
     27       0.214822  -0.343233  -0.273908  -0.067158  -0.466083   0.461849
     28       0.131537  -0.207160  -0.164093  -0.043115  -0.266040   0.264078
     29      -0.083611   0.132664   0.105473   0.026745   0.175450  -0.173983


-----------
IR SPECTRUM
-----------

 Mode    freq (cm**-1)   T**2         TX         TY         TZ
-------------------------------------------------------------------
   6:       174.13    0.445065  (  0.116667   0.204725   0.624133)
   7:       299.39    2.611141  ( -1.574533  -0.111651   0.345719)
   8:       519.74    0.000002  ( -0.000301  -0.000399  -0.001332)
   9:       535.69   12.848992  ( -0.754836  -1.005641  -3.356769)
  10:       778.89    0.000000  (  0.000334  -0.000012  -0.000080)
  11:       901.86    0.000000  ( -0.000012  -0.000017  -0.000033)
  12:       922.84   93.559560  (  1.806078   2.862148   9.061222)
  13:       925.03    0.000001  (  0.000201   0.000326   0.000924)
  14:       994.10    0.000000  (  0.000107  -0.000055  -0.000021)
  15:      1011.69    2.520831  (  1.534215   0.159887  -0.376102)
  16:      1054.21   36.687134  ( -1.112117  -1.759741  -5.688026)
  17:      1233.00    0.000000  ( -0.000005  -0.000001  -0.000012)
  18:      1321.26    0.000000  (  0.000001   0.000017   0.000021)
  19:      1328.81    2.259135  ( -0.116210   1.442425  -0.406251)
  20:      1423.01    4.527836  ( -1.434508   1.559410  -0.195609)
  21:      1483.65    0.000000  ( -0.000022  -0.000030  -0.000088)
  22:      1657.48   17.781308  (  3.941085  -1.458531  -0.349064)
  23:      1710.47    0.000000  (  0.000024   0.000021   0.000066)
  24:      3121.74    0.000000  ( -0.000041  -0.000201  -0.000068)
  25:      3130.46   31.228950  (  2.877005  -4.714934   0.849229)
  26:      3134.37    0.000002  ( -0.000517  -0.001023   0.000447)
  27:      3135.29   16.453266  (  1.637500   3.440266  -1.391555)
  28:      3215.90    0.000006  (  0.001016   0.002040  -0.000820)
  29:      3216.47   41.200518  ( -2.717067  -5.389420   2.184541)

The first frequency considered to be a vibration is 6
The total number of vibrations considered is 24


--------------------------
THERMOCHEMISTRY AT 298.15K
--------------------------

Temperature         ... 298.15 K
Pressure            ... 1.00 atm
Total Mass          ... 54.09 AMU

Throughout the following assumptions are being made:
  (1) The electronic state is orbitally nondegenerate
  (2) There are no thermally accessible electronically excited states
  (3) Hindered rotations indicated by low frequency modes are not
      treated as such but are treated as vibrations and this may
      cause some error
  (4) All equations used are the standard statistical mechanics
      equations for an ideal gas
  (5) All vibrations are strictly harmonic

freq.     174.13  E(vib)   ...       0.38 
freq.     299.39  E(vib)   ...       0.26 
freq.     519.74  E(vib)   ...       0.13 
freq.     535.69  E(vib)   ...       0.12 
freq.     778.89  E(vib)   ...       0.05 
freq.     901.86  E(vib)   ...       0.03 
freq.     922.84  E(vib)   ...       0.03 
freq.     925.03  E(vib)   ...       0.03 
freq.     994.10  E(vib)   ...       0.02 
freq.    1011.69  E(vib)   ...       0.02 
freq.    1054.21  E(vib)   ...       0.02 
freq.    1233.00  E(vib)   ...       0.01 
freq.    1321.26  E(vib)   ...       0.01 
freq.    1328.81  E(vib)   ...       0.01 
freq.    1423.01  E(vib)   ...       0.00 
freq.    1483.65  E(vib)   ...       0.00 
freq.    1657.48  E(vib)   ...       0.00 
freq.    1710.47  E(vib)   ...       0.00 
freq.    3121.74  E(vib)   ...       0.00 
freq.    3130.46  E(vib)   ...       0.00 
freq.    3134.37  E(vib)   ...       0.00 
freq.    3135.29  E(vib)   ...       0.00 
freq.    3215.90  E(vib)   ...       0.00 
freq.    3216.47  E(vib)   ...       0.00 

------------
INNER ENERGY
------------

The inner energy is: U= E(el) + E(ZPE) + E(vib) + E(rot) + E(trans)
    E(el)   - is the total energy from the electronic structure calculation
              = E(kin-el) + E(nuc-el) + E(el-el) + E(nuc-nuc)
    E(ZPE)  - the the zero temperature vibrational energy from the frequency calculation
    E(vib)  - the the finite temperature correction to E(ZPE) due to population
              of excited vibrational states
    E(rot)  - is the rotational thermal energy
    E(trans)- is the translational thermal energy

Summary of contributions to the inner energy U:
Electronic energy                ...   -155.91837359 Eh
Zero point energy                ...      0.08481499 Eh      53.22 kcal/mol
Thermal vibrational correction   ...      0.00182358 Eh       1.14 kcal/mol
Thermal rotational correction    ...      0.00141627 Eh       0.89 kcal/mol
Thermal translational correction ...      0.00141627 Eh       0.89 kcal/mol
-----------------------------------------------------------------------
Total thermal energy                   -155.82890248 Eh


Summary of corrections to the electronic energy:
(perhaps to be used in another calculation)
Total thermal correction                  0.00465612 Eh       2.92 kcal/mol
Non-thermal (ZPE) correction              0.08481499 Eh      53.22 kcal/mol
-----------------------------------------------------------------------
Total correction                          0.08947111 Eh      56.14 kcal/mol


--------
ENTHALPY
--------

The enthalpy is H = U + kB*T
                kB is Boltzmann's constant
Total free energy                 ...   -155.82890248 Eh 
Thermal Enthalpy correction       ...      0.00094421 Eh       0.59 kcal/mol
-----------------------------------------------------------------------
Total Enthalpy                    ...   -155.82795827 Eh


Vibrational entropy computed according to the QRRHO of S. Grimme
Chem.Eur.J. 2012 18 9955


-------
ENTROPY
-------

The entropy contributions are T*S = T*(S(el)+S(vib)+S(rot)+S(trans)
     S(el)   - electronic entropy
     S(vib)  - vibrational entropy
     S(rot)  - rotational entropy
     S(trans)- translational entropy
The entropies will be listed as mutliplied by the temperature to get
units of energy

Electronic entropy                ...      0.00000000 Eh      0.00 kcal/mol
Vibrational entropy               ...      0.00284934 Eh      1.79 kcal/mol
Rotational entropy                ...      0.01016433 Eh      6.38 kcal/mol
Translational entropy             ...      0.01800097 Eh     11.30 kcal/mol
-----------------------------------------------------------------------
Final entropy term                ...      0.03101464 Eh     19.46 kcal/mol


CAUTION: The rotational entropy is not quite correctly treated here
         because it includes a symmetry number that is not yet correctly
         implemented in ORCA!
For a nonlinear molecule the correct rotational entropy is:
    S(rot) = R*(ln(qrot/sn)+1.5)
    R    = 8.31441 J/mol/K = 1.987191683e-3 kcal/mol/K
    qrot = 31692.9643473
    sn is the rotational symmetry number. We have assumed 3 here
       if it is different for your molecule then you should correct
       the printed rotational entropy by manually evaluating the equation
       as given above

For convenience we print out the resulting values for sn=1 - 12:
 sn= 1  qrot/sn=   31692.9643 T*S(rot)=     7.03 kcal/mol T*S(tot)=    20.11 kcal/mol
 sn= 2  qrot/sn=   15846.4822 T*S(rot)=     6.62 kcal/mol T*S(tot)=    19.70 kcal/mol
 sn= 3  qrot/sn=   10564.3214 T*S(rot)=     6.38 kcal/mol T*S(tot)=    19.46 kcal/mol
 sn= 4  qrot/sn=    7923.2411 T*S(rot)=     6.21 kcal/mol T*S(tot)=    19.29 kcal/mol
 sn= 5  qrot/sn=    6338.5929 T*S(rot)=     6.08 kcal/mol T*S(tot)=    19.16 kcal/mol
 sn= 6  qrot/sn=    5282.1607 T*S(rot)=     5.97 kcal/mol T*S(tot)=    19.05 kcal/mol
 sn= 7  qrot/sn=    4527.5663 T*S(rot)=     5.88 kcal/mol T*S(tot)=    18.96 kcal/mol
 sn= 8  qrot/sn=    3961.6205 T*S(rot)=     5.80 kcal/mol T*S(tot)=    18.88 kcal/mol
 sn= 9  qrot/sn=    3521.4405 T*S(rot)=     5.73 kcal/mol T*S(tot)=    18.81 kcal/mol
 sn=10  qrot/sn=    3169.2964 T*S(rot)=     5.66 kcal/mol T*S(tot)=    18.75 kcal/mol
 sn=11  qrot/sn=    2881.1786 T*S(rot)=     5.61 kcal/mol T*S(tot)=    18.69 kcal/mol
 sn=12  qrot/sn=    2641.0804 T*S(rot)=     5.56 kcal/mol T*S(tot)=    18.64 kcal/mol


-------------------
GIBBS FREE ENTHALPY
-------------------

The Gibbs free enthalpy is G = H - T*S

Total enthalpy                    ...   -155.82795827 Eh 
Total entropy correction          ...     -0.03101464 Eh    -19.46 kcal/mol
-----------------------------------------------------------------------
Final Gibbs free enthalpy         ...   -155.85897291 Eh

For completeness - the Gibbs free enthalpy minus the electronic energy
G-E(el)                           ...      0.05940068 Eh     37.27 kcal/mol


Timings for individual modules:

Sum of individual times         ...      158.241 sec (=   2.637 min)
GTO integral calculation        ...       10.693 sec (=   0.178 min)   6.8 %
SCF iterations                  ...      123.452 sec (=   2.058 min)  78.0 %
SCF Gradient evaluation         ...        9.365 sec (=   0.156 min)   5.9 %
Geometry relaxation             ...        0.271 sec (=   0.005 min)   0.2 %
Analytical frequency calculation...       14.460 sec (=   0.241 min)   9.1 %
                             ****ORCA TERMINATED NORMALLY****
TOTAL RUN TIME: 0 days 0 hours 2 minutes 41 seconds 868 msec
